
Host: localhost

Timers On : Fri Sep  7 03:37:29 2012
Timers Off: Fri Sep  7 03:37:29 2012

Wall Time:        0.00 seconds


***********************************************************
